<?xml version="1.0"?>
<VTKFile type="PolyData" version="0.1" byte_order="LittleEndian" compressor="vtkZLibDataCompressor">
  <PolyData>
    <Piece NumberOfPoints="8760" NumberOfVerts="0" NumberOfLines="54" NumberOfStrips="0" NumberOfPolys="0">
      <PointData Tensors="tensors">
        <DataArray type="Float32" Name="tensors" NumberOfComponents="9" format="ascii" RangeMin="0.00094911093448" RangeMax="0.0021532788323">
          0.00046748315799 7.6845055446e-05 9.5145092928e-05 7.6845055446e-05 0.00072332751006 -2.7530652005e-05
          9.5145092928e-05 -2.7530652005e-05 0.00081463495735 0.00047134738998 8.1395752204e-05 7.0512469392e-05
          8.1395752204e-05 0.00066132529173 -1.845029692e-05 7.0512469392e-05 -1.845029692e-05 0.00081591738854
          0.00048965861788 9.1164220066e-05 2.1386005756e-05 9.1164220066e-05 0.00063534232322 -1.3977420167e-05
          2.1386005756e-05 -1.3977420167e-05 0.00084284349578 0.00051011797041 0.00010268337792 -3.1114890589e-05
          0.00010268337792 0.00061805575388 -8.6956833911e-06 -3.1114890589e-05 -8.6956833911e-06 0.0008726582746
          0.00052728888113 0.0001166083166 -7.8259901784e-05 0.0001166083166 0.00060752860736 5.1224687923e-06
          -7.8259901784e-05 5.1224687923e-06 0.00090106151765 0.00053583132103 0.00011760967027 -0.00012175043958
          0.00011760967027 0.00058346660808 2.1657036996e-05 -0.00012175043958 2.1657036996e-05 0.00091208622325
          0.00054240017198 0.00010969246068 -0.00016533960297 0.00010969246068 0.0005563054583 3.6304147216e-05
          -0.00016533960297 3.6304147216e-05 0.00091728719417 0.00054442841792 9.3854381703e-05 -0.00019766720652
          9.3854381703e-05 0.00055035488913 5.7844405092e-05 -0.00019766720652 5.7844405092e-05 0.00091581995366
          0.00055002787849 7.5345233199e-05 -0.00021033300436 7.5345233199e-05 0.00055983639322 7.7079494076e-05
          -0.00021033300436 7.7079494076e-05 0.00090039795032 0.00056575948838 5.0601924158e-05 -0.00021724641556
          5.0601924158e-05 0.00056516425684 8.8702581706e-05 -0.00021724641556 8.8702581706e-05 0.00087628286565
          0.00058097182773 1.8301960154e-05 -0.00022269347392 1.8301960154e-05 0.00056626053993 0.0001067947087
          -0.00022269347392 0.0001067947087 0.00084990210598 0.00059980043443 -1.3709493942e-05 -0.00022570308647
          -1.3709493942e-05 0.0005640348536 0.00013244511501 -0.00022570308647 0.00013244511501 0.00082341121743
          0.00064212275902 -3.770500598e-06 -0.0002464314166 -3.770500598e-06 0.00053297408158 0.00013067323016
          -0.0002464314166 0.00013067323016 0.0008194068796 0.00067241699435 1.0860450857e-05 -0.00026742162299
          1.0860450857e-05 0.00051263294881 0.00011522917339 -0.00026742162299 0.00011522917339 0.0007978999638
          0.00067921675509 2.4080225558e-05 -0.00027214287547 2.4080225558e-05 0.00052300735842 9.7829994047e-05
          -0.00027214287547 9.7829994047e-05 0.0007504747482 0.00066799245542 3.2024436223e-05 -0.00026948036975
          3.2024436223e-05 0.00053824175848 9.0157518571e-05 -0.00026948036975 9.0157518571e-05 0.0006982848281
          0.000652540999 4.433885988e-05 -0.00028221006505 4.433885988e-05 0.00053154153284 7.6084288594e-05
          -0.00028221006505 7.6084288594e-05 0.00065384380287 0.00064422166906 6.3897605287e-05 -0.00031312266947
          6.3897605287e-05 0.00050155475037 4.9610367569e-05 -0.00031312266947 4.9610367569e-05 0.00063599506393
          0.00065867142985 7.3392024206e-05 -0.00034276844235 7.3392024206e-05 0.00048394518672 3.9921660573e-06
          -0.00034276844235 3.9921660573e-06 0.00062436627923 0.0006830386701 8.0416029959e-05 -0.00035701511661
          8.0416029959e-05 0.00048635274288 -2.1194960937e-05 -0.00035701511661 -2.1194960937e-05 0.00060614902759
          0.00075584225124 7.3939983849e-05 -0.00035519423545 7.3939983849e-05 0.0005116565153 -7.770112461e-06
          -0.00035519423545 -7.770112461e-06 0.00057614187244 0.00084188469918 7.6263590017e-05 -0.00036333175376
          7.6263590017e-05 0.00051602651365 5.4260754041e-06 -0.00036333175376 5.4260754041e-06 0.00055861182045
          0.0009261330124 9.1267982498e-05 -0.00036090327194 9.1267982498e-05 0.00047753183753 4.692632956e-06
          -0.00036090327194 4.692632956e-06 0.00059249298647 0.00099417311139 0.00011141927826 -0.0003527138324
          0.00011141927826 0.00046599362395 5.5264008552e-06 -0.0003527138324 5.5264008552e-06 0.00062857102603
          0.0010495211463 0.00013700034469 -0.00034394615795 0.00013700034469 0.00047952285968 7.5539214777e-06
          -0.00034394615795 7.5539214777e-06 0.00066097039962 0.0010779360309 0.00014370272402 -0.00032169147744
          0.00014370272402 0.00050036096945 -3.2014681892e-06 -0.00032169147744 -3.2014681892e-06 0.00067896163091
          0.001114217448 0.00013912886789 -0.00030184205389 0.00013912886789 0.00051618315047 -1.9051825802e-05
          -0.00030184205389 -1.9051825802e-05 0.00070760172093 0.0011655394919 0.00014382423251 -0.00028497070889
          0.00014382423251 0.00052204128588 -2.8382359233e-05 -0.00028497070889 -2.8382359233e-05 0.0007246073219
          0.0012278881622 0.00015621773491 -0.00027015522937 0.00015621773491 0.00051956059178 -3.3016931411e-05
          -0.00027015522937 -3.3016931411e-05 0.00073096423876 0.0012804452563 0.00015237694606 -0.0002467330778
          0.00015237694606 0.000498921494 -2.9592420105e-05 -0.0002467330778 -2.9592420105e-05 0.00071232940536
          0.001323387376 0.00013754694373 -0.00020591006614 0.00013754694373 0.00049288832815 -2.3581760615e-05
          -0.00020591006614 -2.3581760615e-05 0.00070094567491 0.0013600023231 0.000114094124 -0.00015255228209
          0.000114094124 0.00049780489644 -1.5862222426e-05 -0.00015255228209 -1.5862222426e-05 0.00069433596218
          0.0013909561094 0.0001042511285 -9.2694193881e-05 0.0001042511285 0.00055466871709 8.6005610456e-07
          -9.2694193881e-05 8.6005610456e-07 0.00071615440538 0.0013956327457 9.559893806e-05 -2.5322255169e-05
          9.559893806e-05 0.00064283976099 2.4055985705e-05 -2.5322255169e-05 2.4055985705e-05 0.00075635930989
          0.0013862515334 8.473595517e-05 4.4126907596e-05 8.473595517e-05 0.00074350909563 4.8623962357e-05
          4.4126907596e-05 4.8623962357e-05 0.00080200447701 0.0013972290326 5.9240715927e-05 6.7193737777e-05
          5.9240715927e-05 0.00077661749674 5.7464025303e-05 6.7193737777e-05 5.7464025303e-05 0.000819718407
          0.0014281382319 2.7067502742e-05 7.2537754022e-05 2.7067502742e-05 0.00080202019308 5.9198788222e-05
          7.2537754022e-05 5.9198788222e-05 0.00084181560669 0.001472009928 -4.6170816859e-06 7.895296585e-05
          -4.6170816859e-06 0.00084876379697 6.1711623857e-05 7.895296585e-05 6.1711623857e-05 0.00088158424478
          0.0014626671327 -1.9803070245e-05 0.00011470885511 -1.9803070245e-05 0.00083283532877 6.0669561208e-05
          0.00011470885511 6.0669561208e-05 0.00089010805823 0.0014226521598 -2.7196239898e-05 0.00015506614
          -2.7196239898e-05 0.00081130245235 5.9432342823e-05 0.00015506614 5.9432342823e-05 0.00089719006792
          0.0013729404891 -3.3537158743e-05 0.00018124385679 -3.3537158743e-05 0.00080510036787 6.1001344875e-05
          0.00018124385679 6.1001344875e-05 0.00091107538901 0.001324821962 -3.9680780901e-05 0.00019988707209
          -3.9680780901e-05 0.00079880876001 5.3460978961e-05 0.00019988707209 5.3460978961e-05 0.0008971914649
          0.0012564390199 -4.4671221985e-05 0.0002091628121 -4.4671221985e-05 0.00078732700786 3.7195059122e-05
          0.0002091628121 3.7195059122e-05 0.00085866864538 0.0011467308505 -4.7479028581e-05 0.00020524922002
          -4.7479028581e-05 0.00075523176929 1.9455374058e-05 0.00020524922002 1.9455374058e-05 0.00080246623838
          0.001032672124 -4.5461794798e-05 0.00019564008107 -4.5461794798e-05 0.00071680097608 5.7277329688e-06
          0.00019564008107 5.7277329688e-06 0.0007461187779 0.00098971580155 -3.4801167203e-05 0.00019903699285
          -3.4801167203e-05 0.00069612357765 5.8924588302e-06 0.00019903699285 5.8924588302e-06 0.00071818591096
          0.00094867043663 -2.5175826522e-05 0.00021737095085 -2.5175826522e-05 0.00062195031205 1.3555628357e-05
          0.00021737095085 1.3555628357e-05 0.0006547748344 0.00090798485326 -1.2299773516e-05 0.00022214502678
          -1.2299773516e-05 0.00057374854805 2.7374597266e-05 0.00022214502678 2.7374597266e-05 0.00060089543695
          0.00085462257266 -1.3514019884e-05 0.00023044475529 -1.3514019884e-05 0.00056395417778 4.6017808927e-05
          0.00023044475529 4.6017808927e-05 0.00056850712281 0.00078003713861 -1.6591357053e-05 0.00022111115686
          -1.6591357053e-05 0.00057238340378 6.3481973484e-05 0.00022111115686 6.3481973484e-05 0.00052962498739
          0.00068299123086 -2.0664107069e-05 0.00019339937717 -2.0664107069e-05 0.00059522286756 7.9144294432e-05
          0.00019339937717 7.9144294432e-05 0.00048350094585 0.00059764290927 -1.7442509488e-05 0.00018080175505
          -1.7442509488e-05 0.00060868589208 8.6270825705e-05 0.00018080175505 8.6270825705e-05 0.00046401043073
          0.00060552981449 -3.480203759e-06 0.00022640520183 -3.480203759e-06 0.00063864234835 8.4313200205e-05
          0.00022640520183 8.4313200205e-05 0.00046470071538 0.00060052837944 1.9317321858e-06 0.00024863544968
          1.9317321858e-06 0.00069480040111 9.1509427875e-05 0.00024863544968 9.1509427875e-05 0.00047022418585
          0.00056674139341 3.4664917621e-06 0.00024125026539 3.4664917621e-06 0.00074813549872 0.0001032094151
          0.00024125026539 0.0001032094151 0.00048106285976 0.00051128049381 8.2154747361e-06 0.00021050189389
          8.2154747361e-06 0.00078259396832 0.00011467035074 0.00021050189389 0.00011467035074 0.00049401441356
          0.0004514438042 1.5980393073e-05 0.00016876828158 1.5980393073e-05 0.00078783609206 0.00011894963973
          0.00016876828158 0.00011894963973 0.00050740630832 0.0004322808818 2.2668307793e-05 0.00015028669441
          2.2668307793e-05 0.00077146821423 0.00011368340347 0.00015028669441 0.00011368340347 0.00051727797836
          0.00047568551963 2.433357804e-05 0.00017166289035 2.433357804e-05 0.00075334438588 0.00010935530008
          0.00017166289035 0.00010935530008 0.00052399258129 0.00049704161938 2.7246342142e-05 0.00018951902166
          2.7246342142e-05 0.0007373621338 0.00010842431948 0.00018951902166 0.00010842431948 0.00053444737568
          0.00049964705249 3.558386743e-05 0.0002014580823 3.558386743e-05 0.00072191056097 0.00011247461953
          0.0002014580823 0.00011247461953 0.00054873659974 0.00050401041517 4.8098729167e-05 0.00020269383094
          4.8098729167e-05 0.00071081361966 0.00011790391727 0.00020269383094 0.00011790391727 0.00056864705402
          0.00051384646213 6.9584391895e-05 0.00019182656251 6.9584391895e-05 0.00069419998908 0.00012952831457
          0.00019182656251 0.00012952831457 0.00059215800138 0.00055407220498 8.9217974164e-05 0.00018940737937
          8.9217974164e-05 0.00063705968205 0.00011980301497 0.00018940737937 0.00011980301497 0.00061485130573
          0.0006073298282 0.00010863479838 0.00019448304374 0.00010863479838 0.00058871583315 9.9014294392e-05
          0.00019448304374 9.9014294392e-05 0.0006212197477 0.00066708493978 0.00011426047422 0.00021558758453
          0.00011426047422 0.00056678877445 7.4386378401e-05 0.00021558758453 7.4386378401e-05 0.00062673387583
          0.00072103133425 0.00011630916561 0.00024358114752 0.00011630916561 0.00053527776618 5.6140281231e-05
          0.00024358114752 5.6140281231e-05 0.00064897810807 0.00075360684423 0.00010695478704 0.00026783961221
          0.00010695478704 0.00050406489754 4.3964635552e-05 0.00026783961221 4.3964635552e-05 0.00067734904587
          0.00077989010606 9.1384768893e-05 0.00028764351737 9.1384768893e-05 0.00053131463937 4.9773418141e-05
          0.00028764351737 4.9773418141e-05 0.00070597679587 0.00076417782111 7.5205643952e-05 0.00027793718618
          7.5205643952e-05 0.00059579586377 4.5635999413e-05 0.00027793718618 4.5635999413e-05 0.0006981024635
          0.00074288819451 6.1134793214e-05 0.00027153108385 6.1134793214e-05 0.00063065707218 4.4231070206e-05
          0.00027153108385 4.4231070206e-05 0.0007011697744 0.00071372557431 4.8493791837e-05 0.00026773958234
          4.8493791837e-05 0.00063790730201 4.5662403863e-05 0.00026773958234 4.5662403863e-05 0.00071296439273
          0.0006792889908 3.7850928493e-05 0.00026754272403 3.7850928493e-05 0.00060793530429 4.2089726776e-05
          0.00026754272403 4.2089726776e-05 0.00072684185579 0.00066918501398 4.0515536966e-05 0.00024788625888
          4.0515536966e-05 0.00059122266248 2.7702206353e-05 0.00024788625888 2.7702206353e-05 0.00073365936987
          0.00065529393032 4.5409677114e-05 0.00022344294121 4.5409677114e-05 0.00057825556723 2.243515155e-05
          0.00022344294121 2.243515155e-05 0.00074145826511 0.00063423789106 5.1768492995e-05 0.00019678180979
          5.1768492995e-05 0.00056547409622 2.5571111109e-05 0.00019678180979 2.5571111109e-05 0.00075025553815
          0.0006111493567 4.9423128075e-05 0.00017439540534 4.9423128075e-05 0.00055838789558 2.8513768484e-05
          0.00017439540534 2.8513768484e-05 0.00076330086449 0.00058670522412 3.6439290852e-05 0.00015534926206
          3.6439290852e-05 0.00058296916541 2.6566223823e-05 0.00015534926206 2.6566223823e-05 0.00077093165601
          0.00056524010142 3.3349777368e-05 0.00013602951367 3.3349777368e-05 0.000621258514 2.8210908567e-05
          0.00013602951367 2.8210908567e-05 0.00077210902236 0.00054236454889 3.9806116547e-05 0.00011512359924
          3.9806116547e-05 0.0006693227333 3.414281673e-05 0.00011512359924 3.414281673e-05 0.00076429790352
          0.00052881106967 4.2854091589e-05 0.00011982238357 4.2854091589e-05 0.00071636977373 2.6334213544e-05
          0.00011982238357 2.6334213544e-05 0.00076366617577 0.00066512689227 -5.0519221986e-05 -2.7672203942e-05
          -5.0519221986e-05 0.0006671398296 -0.00011796725448 -2.7672203942e-05 -0.00011796725448 0.00063430250157
          0.0006705300766 -4.37781855e-05 -1.6754562239e-05 -4.37781855e-05 0.00069876527414 -0.00012316604261
          -1.6754562239e-05 -0.00012316604261 0.00063779699849 0.00067182042403 -3.3876662201e-05 -1.0140900486e-05
          -3.3876662201e-05 0.00071843934711 -0.00011849281873 -1.0140900486e-05 -0.00011849281873 0.00063460046658
          0.0006667606649 -2.1885098249e-05 -8.9446857601e-06 -2.1885098249e-05 0.00072629703209 -0.00010506615945
          -8.9446857601e-06 -0.00010506615945 0.00062332174275 0.00065349770011 -1.8231898139e-05 -1.2271416381e-05
          -1.8231898139e-05 0.00073351257015 -9.4180701126e-05 -1.2271416381e-05 -9.4180701126e-05 0.00060689187376
          0.00063385785324 -2.5538813134e-05 -1.3546355149e-05 -2.5538813134e-05 0.00075923628174 -0.00010036866297
          -1.3546355149e-05 -0.00010036866297 0.00059758190764 0.00061332562473 -3.1340437999e-05 -1.7919937818e-05
          -3.1340437999e-05 0.00078027386917 -0.00010408074013 -1.7919937818e-05 -0.00010408074013 0.00059765705373
          0.00059372087708 -3.6112342059e-05 -2.1910989744e-05 -3.6112342059e-05 0.00079482997535 -9.9160839454e-05
          -2.1910989744e-05 -9.9160839454e-05 0.00059129187139 0.00058801815612 -3.6495988752e-05 -2.3503609555e-05
          -3.6495988752e-05 0.00077663146658 -8.3420265582e-05 -2.3503609555e-05 -8.3420265582e-05 0.00059552758466
          0.00058024533791 -3.7239162339e-05 -2.432792644e-05 -3.7239162339e-05 0.00077066372614 -6.6319014877e-05
          -2.432792644e-05 -6.6319014877e-05 0.00059120642254 0.00057133892551 -3.7618716306e-05 -2.5303386792e-05
          -3.7618716306e-05 0.0007734601968 -4.8100118875e-05 -2.5303386792e-05 -4.8100118875e-05 0.00058081804309
          0.00056156743085 -4.2787098209e-05 -4.5590013542e-06 -4.2787098209e-05 0.00080412998796 -4.288584023e-05
          -4.5590013542e-06 -4.288584023e-05 0.0005804093671 0.00055332086049 -4.8798581702e-05 1.712579251e-05
          -4.8798581702e-05 0.00084095128113 -4.3453674152e-05 1.712579251e-05 -4.3453674152e-05 0.00057849334553
          0.00054711668054 -5.5457603594e-05 3.7677658838e-05 -5.5457603594e-05 0.0008831564337 -4.9745554861e-05
          3.7677658838e-05 -4.9745554861e-05 0.00057366053807 0.00053846236551 -4.8407342547e-05 4.221466952e-05
          -4.8407342547e-05 0.00089046260109 -5.2357801906e-05 4.221466952e-05 -5.2357801906e-05 0.00057269656099
          0.0005298423348 -4.0000959416e-05 4.7046847612e-05 -4.0000959416e-05 0.00089139700867 -5.2185714594e-05
          4.7046847612e-05 -5.2185714594e-05 0.00057275319705 0.00052191771101 -3.319663665e-05 5.5301956309e-05
          -3.319663665e-05 0.00089282164117 -5.0441751227e-05 5.5301956309e-05 -5.0441751227e-05 0.0005732756108
          0.00051527039614 -2.92951554e-05 6.3765190134e-05 -2.92951554e-05 0.00089985877275 -3.1626568671e-05
          6.3765190134e-05 -3.1626568671e-05 0.00056737771956 0.00050728546921 -2.5601026209e-05 6.8444911449e-05
          -2.5601026209e-05 0.00090289843502 -4.1855655581e-06 6.8444911449e-05 -4.1855655581e-06 0.00056450563716
          0.00049946119543 -1.9406857973e-05 6.9103341957e-05 -1.9406857973e-05 0.00090109737357 2.6089002858e-05
          6.9103341957e-05 2.6089002858e-05 0.00056669214973 0.00049054651754 -8.1101252363e-06 6.6278196755e-05
          -8.1101252363e-06 0.0008862108225 4.6455919801e-05 6.6278196755e-05 4.6455919801e-05 0.00056451995624
          0.00048455648357 2.8919694159e-06 6.3302031776e-05 2.8919694159e-06 0.00087291089585 6.3580395363e-05
          6.3302031776e-05 6.3580395363e-05 0.00056324951584 0.00048470907495 1.2272878848e-05 5.9636327933e-05
          1.2272878848e-05 0.0008667021757 8.0889112724e-05 5.9636327933e-05 8.0889112724e-05 0.00057145731989
          0.00049847754417 2.8944668884e-05 5.2629075071e-05 2.8944668884e-05 0.00085170177044 9.0689769422e-05
          5.2629075071e-05 9.0689769422e-05 0.00062563986285 0.00051263632486 4.0981929487e-05 4.0110826376e-05
          4.0981929487e-05 0.00083041860489 9.6810705145e-05 4.0110826376e-05 9.6810705145e-05 0.00069068407174
          0.00052538205637 4.1024923121e-05 1.9303752197e-05 4.1024923121e-05 0.0008142660954 0.00010385130008
          1.9303752197e-05 0.00010385130008 0.00075296673458 0.00053860270418 2.8568891139e-05 -6.1462233134e-06
          2.8568891139e-05 0.00081915658666 0.00011814975733 -6.1462233134e-06 0.00011814975733 0.00080907152733
          0.00055679708021 3.1151477742e-05 -2.7204283469e-05 3.1151477742e-05 0.00083222752437 0.0001332082611
          -2.7204283469e-05 0.0001332082611 0.00084925314877 0.00055639143102 3.6951474613e-05 -5.630418309e-05
          3.6951474613e-05 0.00081266066991 0.00014307320816 -5.630418309e-05 0.00014307320816 0.00087175727822
          0.00053864927031 3.6600624298e-05 -8.5611151007e-05 3.6600624298e-05 0.00079391920008 0.00015758723021
          -8.5611151007e-05 0.00015758723021 0.00088331243023 0.00050205853768 3.1338273402e-05 -0.00011349598935
          3.1338273402e-05 0.00077646080172 0.00017702027981 -0.00011349598935 0.00017702027981 0.00088448863244
          0.00048257605522 1.8355265638e-05 -0.00012955641432 1.8355265638e-05 0.00074885878712 0.00018806452863
          -0.00012955641432 0.00018806452863 0.00087275798433 0.00049833778758 -2.2131048354e-06 -0.00013062487415
          -2.2131048354e-06 0.00072055263445 0.000200150811 -0.00013062487415 0.000200150811 0.00084414653247
          0.00051478046225 -2.7506202969e-05 -0.00013255297381 -2.7506202969e-05 0.00070365588181 0.00021200490301
          -0.00013255297381 0.00021200490301 0.00079687224934 0.00052713777404 -5.6276934629e-05 -0.00013076205505
          -5.6276934629e-05 0.00070476275869 0.00023319639149 -0.00013076205505 0.00023319639149 0.00074212689651
          0.00055474322289 -4.6405551984e-05 -0.0001396175503 -4.6405551984e-05 0.00069804041414 0.00023392845469
          -0.0001396175503 0.00023392845469 0.00070339854574 0.00057922414271 -2.4974837288e-05 -0.00015072859242
          -2.4974837288e-05 0.00068791385274 0.00022512525902 -0.00015072859242 0.00022512525902 0.0006730973837
          0.00058165658265 -1.1956021808e-05 -0.00014911587641 -1.1956021808e-05 0.00069125485606 0.00021648262918
          -0.00014911587641 0.00021648262918 0.00064408371691 0.00058436975814 -8.0468535089e-06 -0.00013550194853
          -8.0468535089e-06 0.00069687346695 0.00021123795887 -0.00013550194853 0.00021123795887 0.00060968636535
          0.000590747979 -5.0608027777e-06 -0.00012488864013 -5.0608027777e-06 0.00069479929516 0.00020114473591
          -0.00012488864013 0.00020114473591 0.0005781618529 0.00059892563149 6.7637188295e-06 -0.0001315579284
          6.7637188295e-06 0.00068351323716 0.00017636167468 -0.0001315579284 0.00017636167468 0.00056783098262
          0.00060022209072 2.2127085685e-05 -0.00013325313921 2.2127085685e-05 0.00067822786514 0.00013334355026
          -0.00013325313921 0.00013334355026 0.00055391161004 0.00060382171068 3.3512562368e-05 -0.00012292833708
          3.3512562368e-05 0.00067736057099 8.7555090431e-05 -0.00012292833708 8.7555090431e-05 0.00053700438002
          0.00079153961269 8.358303603e-05 0.00012622150825 8.358303603e-05 0.0009193783626 -6.8587702117e-05
          0.00012622150825 -6.8587702117e-05 0.00054621597519 0.00078669952927 8.998667181e-05 0.00012148401584
          8.998667181e-05 0.00090746389469 -7.534604083e-05 0.00012148401584 -7.534604083e-05 0.00048563574092
          0.0007537099882 9.072991088e-05 0.00010898245819 9.072991088e-05 0.00091143266764 -6.7683533416e-05
          0.00010898245819 -6.7683533416e-05 0.00046831896179 0.00072273809928 9.3494396424e-05 9.2385205789e-05
          9.3494396424e-05 0.00090896792244 -6.1304563133e-05 9.2385205789e-05 -6.1304563133e-05 0.0004633719509
          0.00070006033638 0.00010178494995 7.8542660049e-05 0.00010178494995 0.00089640176157 -5.6804441556e-05
          7.8542660049e-05 -5.6804441556e-05 0.0004591687175 0.00067485746695 0.0001063274176 7.2718517913e-05
          0.0001063274176 0.00089264503913 -5.5217202316e-05 7.2718517913e-05 -5.5217202316e-05 0.00045691509149
          0.00064280349761 0.0001103238319 6.5001026087e-05 0.0001103238319 0.00089599500643 -5.0447302783e-05
          6.5001026087e-05 -5.0447302783e-05 0.00045327894622 0.00060468429001 0.00011404736142 5.3972555179e-05
          0.00011404736142 0.00090477749472 -4.2303166992e-05 5.3972555179e-05 -4.2303166992e-05 0.00044785274076
          0.0005903999554 0.00011723869102 4.4690117647e-05 0.00011723869102 0.00092761014821 -4.3381525757e-05
          4.4690117647e-05 -4.3381525757e-05 0.00043635204202 0.00058971892577 0.00011781229114 3.6674948205e-05
          0.00011781229114 0.00095241609961 -4.8651163524e-05 3.6674948205e-05 -4.8651163524e-05 0.00042137250421
          0.00058891298249 0.00011526689195 2.7776288334e-05 0.00011526689195 0.0009731897153 -5.1856892242e-05
          2.7776288334e-05 -5.1856892242e-05 0.00040457592695 0.00058542750776 0.00010593116895 1.7127051251e-05
          0.00010593116895 0.00097217701841 -5.2013809182e-05 1.7127051251e-05 -5.2013809182e-05 0.00039658695459
          0.00057823822135 8.6769046902e-05 7.7054655776e-06 8.6769046902e-05 0.00095615041209 -5.1001745305e-05
          7.7054655776e-06 -5.1001745305e-05 0.00040154796443 0.00057133875089 6.7907414632e-05 -7.3659646205e-07
          6.7907414632e-05 0.00094136147527 -4.7986613936e-05 -7.3659646205e-07 -4.7986613936e-05 0.00040905040805
          0.00056683307048 5.3993309848e-05 -1.8186390207e-06 5.3993309848e-05 0.00094448216259 -4.3156334868e-05
          -1.8186390207e-06 -4.3156334868e-05 0.00042244643555 0.00056482729269 4.2356685299e-05 6.4995906541e-06
          4.2356685299e-05 0.00096486392431 -4.0099959733e-05 6.4995906541e-06 -4.0099959733e-05 0.00044399939361
          0.00056401855545 3.1191932067e-05 1.5826464733e-05 3.1191932067e-05 0.0009855243843 -3.9770948206e-05
          1.5826464733e-05 -3.9770948206e-05 0.000464440207 0.0005672632833 2.9978678867e-05 2.579708962e-05
          2.9978678867e-05 0.00098944304045 -3.6718669435e-05 2.579708962e-05 -3.6718669435e-05 0.00047686236212
          0.00057321891654 3.9932729123e-05 3.5190529161e-05 3.9932729123e-05 0.00097168050706 -2.8016120268e-05
          3.5190529161e-05 -2.8016120268e-05 0.00048109880299 0.00057596748229 4.8540357966e-05 4.3439817091e-05
          4.8540357966e-05 0.00095346348826 -1.9059354599e-05 4.3439817091e-05 -1.9059354599e-05 0.00048728697584
          0.00056760996813 5.1305596571e-05 4.8716210586e-05 5.1305596571e-05 0.00093778251903 -8.8864635472e-06
          4.8716210586e-05 -8.8864635472e-06 0.00049521453911 0.0005507998867 4.8351841542e-05 5.1133902161e-05
          4.8351841542e-05 0.00092712446349 3.4785139178e-06 5.1133902161e-05 3.4785139178e-06 0.00050348404329
          0.00053613114869 4.7009903938e-05 5.2221577789e-05 4.7009903938e-05 0.00092007388594 1.8681968868e-05
          5.2221577789e-05 1.8681968868e-05 0.00051348569104 0.00053282437148 5.0145688874e-05 5.2647101256e-05
          5.0145688874e-05 0.00093047769042 4.1716408305e-05 5.2647101256e-05 4.1716408305e-05 0.00053610204486
          0.0005424170522 5.6450055126e-05 5.517943282e-05 5.6450055126e-05 0.00096041278448 7.084650133e-05
          5.517943282e-05 7.084650133e-05 0.0005703997449 0.00055372825591 6.0495371144e-05 5.6369997765e-05
          6.0495371144e-05 0.00099435972515 9.9625605799e-05 5.6369997765e-05 9.9625605799e-05 0.00060609658249
          0.00056422053603 6.0441332607e-05 5.3117957577e-05 6.0441332607e-05 0.0010198222008 0.00012394526857
          5.3117957577e-05 0.00012394526857 0.0006483833422 0.00056194950594 5.3022300563e-05 4.1225048335e-05
          5.3022300563e-05 0.0010048358236 0.0001363997435 4.1225048335e-05 0.0001363997435 0.00069528020686
          0.0005577467964 3.9662110794e-05 2.7779164157e-05 3.9662110794e-05 0.00099256704561 0.00014867642312
          2.7779164157e-05 0.00014867642312 0.00073712557787 0.00054780661594 2.0750330805e-05 8.3547765826e-06
          2.0750330805e-05 0.00097188615473 0.00015968628577 8.3547765826e-06 0.00015968628577 0.00076742313104
          0.00054860394448 2.1564314011e-05 -7.3421560955e-06 2.1564314011e-05 0.00095185165992 0.00017474796914
          -7.3421560955e-06 0.00017474796914 0.00079049472697 0.00053765880875 2.3913045879e-05 -2.2869189706e-05
          2.3913045879e-05 0.00092940981267 0.00018974699196 -2.2869189706e-05 0.00018974699196 0.00080301822163
          0.000513403269 2.6840507417e-05 -3.8734517148e-05 2.6840507417e-05 0.00090485619148 0.00020496141224
          -3.8734517148e-05 0.00020496141224 0.00080310029443 0.0004789281229 2.9452619856e-05 -5.0596037909e-05
          2.9452619856e-05 0.00087734923 0.00022501480998 -5.0596037909e-05 0.00022501480998 0.00078818626935
          0.0004605097638 2.5760889912e-05 -4.8185134801e-05 2.5760889912e-05 0.00085082452279 0.00025354168611
          -4.8185134801e-05 0.00025354168611 0.00076796277426 0.00047299341531 1.0154467418e-05 -4.8074976803e-05
          1.0154467418e-05 0.00081757153384 0.00026902073296 -4.8074976803e-05 0.00026902073296 0.00074807432247
          0.00048751503346 -9.0113690021e-06 -4.8877813242e-05 -9.0113690021e-06 0.00079669523984 0.00028874111013
          -4.8877813242e-05 0.00028874111013 0.0007205333095 0.00049873918761 -3.0347749998e-05 -5.3243536968e-05
          -3.0347749998e-05 0.00079190451652 0.00031001816387 -5.3243536968e-05 0.00031001816387 0.00068893644493
          0.00048179147416 -4.6227105486e-05 -5.644356861e-05 -4.6227105486e-05 0.00081746251089 0.00033596195863
          -5.644356861e-05 0.00033596195863 0.00066171021899 0.0004790777748 -3.5139946704e-05 -6.2500766944e-05
          -3.5139946704e-05 0.00082045659656 0.00033831130713 -6.2500766944e-05 0.00033831130713 0.00064819445834
          0.00049138191389 -2.2659216484e-05 -6.4220803324e-05 -2.2659216484e-05 0.00080701406114 0.00032917628414
          -6.4220803324e-05 0.00032917628414 0.00063237099675 0.00051357998746 -1.446789156e-05 -6.0053891502e-05
          -1.446789156e-05 0.00079146836651 0.00030600951868 -6.0053891502e-05 0.00030600951868 0.000597698614
          0.00052402104484 -7.2689795161e-06 -5.1245453506e-05 -7.2689795161e-06 0.00079346756684 0.00027606732328
          -5.1245453506e-05 0.00027606732328 0.00054096552776 0.00050935783656 -4.4254547902e-06 -3.6102948798e-05
          -4.4254547902e-06 0.00081802200293 0.00025867737713 -3.6102948798e-05 0.00025867737713 0.00047539296793
          0.00049719185336 3.2451472975e-07 -2.3481077733e-05 3.2451472975e-07 0.00084316160064 0.00023786899692
          -2.3481077733e-05 0.00023786899692 0.00042209253297 0.00051189668011 1.2958857951e-05 -2.4344813937e-05
          1.2958857951e-05 0.00085612066323 0.00019406624779 -2.4344813937e-05 0.00019406624779 0.00041902871453
          0.00051043159328 2.5539156923e-05 -1.8092681785e-05 2.5539156923e-05 0.00088267045794 0.00016403989866
          -1.8092681785e-05 0.00016403989866 0.0004124357074 0.00049749639584 3.7635916669e-05 -5.4781366998e-06
          3.7635916669e-05 0.00091897480888 0.00014534729416 -5.4781366998e-06 0.00014534729416 0.00040071900003
          0.00049793499056 4.1356910515e-05 7.3680926107e-06 4.1356910515e-05 0.00091909471666 0.0001122192989
          7.3680926107e-06 0.0001122192989 0.00041559559759 0.00049832148943 4.2621817556e-05 2.0313369532e-05
          4.2621817556e-05 0.00091319729108 7.714513049e-05 2.0313369532e-05 7.714513049e-05 0.00043453075341
          0.000491245999 4.4390060793e-05 3.5148445022e-05 4.4390060793e-05 0.00091372587485 4.6137709433e-05